'nid00129'
 Entering Gaussian System, Link 0=g09
 Initial command:
 /usr/common/usg/g09/c1/g09/l1.exe /scratch/scratchdirs/pmiro/g09/13455143.hopque01/Gau-8776.inp -scrdir=/scratch/scratchdirs/pmiro/g09/13455143.hopque01/
 Entering Link 1 = /usr/common/usg/g09/c1/g09/l1.exe PID=      8777.
  
 Copyright (c) 1988,1990,1992,1993,1995,1998,2003,2009,2011,
            Gaussian, Inc.  All Rights Reserved.
  
 This is part of the Gaussian(R) 09 program.  It is based on
 the Gaussian(R) 03 system (copyright 2003, Gaussian, Inc.),
 the Gaussian(R) 98 system (copyright 1998, Gaussian, Inc.),
 the Gaussian(R) 94 system (copyright 1995, Gaussian, Inc.),
 the Gaussian 92(TM) system (copyright 1992, Gaussian, Inc.),
 the Gaussian 90(TM) system (copyright 1990, Gaussian, Inc.),
 the Gaussian 88(TM) system (copyright 1988, Gaussian, Inc.),
 the Gaussian 86(TM) system (copyright 1986, Carnegie Mellon
 University), and the Gaussian 82(TM) system (copyright 1983,
 Carnegie Mellon University). Gaussian is a federally registered
 trademark of Gaussian, Inc.
  
 This software contains proprietary and confidential information,
 including trade secrets, belonging to Gaussian, Inc.
  
 This software is provided under written license and may be
 used, copied, transmitted, or stored only in accord with that
 written license.
  
 The following legend is applicable only to US Government
 contracts under FAR:
  
                    RESTRICTED RIGHTS LEGEND
  
 Use, reproduction and disclosure by the US Government is
 subject to restrictions as set forth in subparagraphs (a)
 and (c) of the Commercial Computer Software - Restricted
 Rights clause in FAR 52.227-19.
  
 Gaussian, Inc.
 340 Quinnipiac St., Bldg. 40, Wallingford CT 06492
  
  
 ---------------------------------------------------------------
 Warning -- This program may not be used in any manner that
 competes with the business of Gaussian, Inc. or will provide
 assistance to any competitor of Gaussian, Inc.  The licensee
 of this program is prohibited from giving any competitor of
 Gaussian, Inc. access to this program.  By using this program,
 the user acknowledges that Gaussian, Inc. is engaged in the
 business of creating and licensing software in the field of
 computational chemistry and represents and warrants to the
 licensee that it is not a competitor of Gaussian, Inc. and that
 it will not use this program in any manner prohibited above.
 ---------------------------------------------------------------
  

 Cite this work as:
 Gaussian 09, Revision C.01,
 M. J. Frisch, G. W. Trucks, H. B. Schlegel, G. E. Scuseria, 
 M. A. Robb, J. R. Cheeseman, G. Scalmani, V. Barone, B. Mennucci, 
 G. A. Petersson, H. Nakatsuji, M. Caricato, X. Li, H. P. Hratchian, 
 A. F. Izmaylov, J. Bloino, G. Zheng, J. L. Sonnenberg, M. Hada, 
 M. Ehara, K. Toyota, R. Fukuda, J. Hasegawa, M. Ishida, T. Nakajima, 
 Y. Honda, O. Kitao, H. Nakai, T. Vreven, J. A. Montgomery, Jr., 
 J. E. Peralta, F. Ogliaro, M. Bearpark, J. J. Heyd, E. Brothers, 
 K. N. Kudin, V. N. Staroverov, T. Keith, R. Kobayashi, J. Normand, 
 K. Raghavachari, A. Rendell, J. C. Burant, S. S. Iyengar, J. Tomasi, 
 M. Cossi, N. Rega, J. M. Millam, M. Klene, J. E. Knox, J. B. Cross, 
 V. Bakken, C. Adamo, J. Jaramillo, R. Gomperts, R. E. Stratmann, 
 O. Yazyev, A. J. Austin, R. Cammi, C. Pomelli, J. W. Ochterski, 
 R. L. Martin, K. Morokuma, V. G. Zakrzewski, G. A. Voth, 
 P. Salvador, J. J. Dannenberg, S. Dapprich, A. D. Daniels, 
 O. Farkas, J. B. Foresman, J. V. Ortiz, J. Cioslowski, 
 and D. J. Fox, Gaussian, Inc., Wallingford CT, 2010.
 
 ******************************************
 Gaussian 09:  AM64L-G09RevC.01 23-Sep-2011
                19-Oct-2015 
 ******************************************
 %chk=checkpoint.chk
 %NProcShared=24
 Will use up to   24 processors via shared memory.
 %mem=24gb
 --------------------------------------------------
 #p rm06l/gen opt Integral(Grid=UltraFineGrid) freq
 --------------------------------------------------
 1/14=-1,18=20,19=15,26=3,38=1/1,3;
 2/9=110,12=2,17=6,18=5,40=1/2;
 3/5=7,11=2,16=1,25=1,30=1,71=1,74=-53,75=-5,116=1/1,2,3;
 4//1;
 5/5=2,38=5/2;
 6/7=2,8=2,9=2,10=2,28=1/1;
 7//1,2,3,16;
 1/14=-1,18=20,19=15/3(2);
 2/9=110/2;
 99//99;
 2/9=110/2;
 3/5=7,6=1,11=2,16=1,25=1,30=1,71=1,74=-53,75=-5,82=7,116=1/1,2,3;
 4/5=5,16=3/1;
 5/5=2,38=5/2;
 7//1,2,3,16;
 1/14=-1,18=20,19=15/3(-5);
 2/9=110/2;
 6/7=2,8=2,9=2,10=2,19=2,28=1/1;
 99/9=1/99;
 Leave Link    1 at Mon Oct 19 08:01:52 2015, MaxMem= 3221225472 cpu:       2.9
 (Enter /usr/common/usg/g09/c1/g09/l101.exe)
 -------------------
 Oniom Calculation 1
 -------------------
 Charge =  0 Multiplicity = 1
 Symbolic Z-Matrix:
 H                     0.        0.75165  -0.47964 
 H                     0.       -0.75165  -0.47964 
 O                     0.        0.        0.12141 
 
 NAtoms=      3 NQM=        0 NQMF=       0 NMMI=      3 NMMIF=      0
                NMic=       0 NMicF=      0.
                    Isotopes and Nuclear Properties:
 (Nuclear quadrupole moments (NQMom) in fm**2, nuclear magnetic moments (NMagM)
  in nuclear magnetons)

  Atom         1           2           3
 IAtWgt=           1           1          16
 AtmWgt=   1.0078250   1.0078250  15.9949146
 NucSpn=           1           1           0
 AtZEff=   0.0000000   0.0000000   0.0000000
 NQMom=    0.0000000   0.0000000   0.0000000
 NMagM=    2.7928460   2.7928460   0.0000000
 Leave Link  101 at Mon Oct 19 08:01:53 2015, MaxMem= 3221225472 cpu:      16.7
 (Enter /usr/common/usg/g09/c1/g09/l103.exe)

 GradGradGradGradGradGradGradGradGradGradGradGradGradGradGradGradGradGrad
 Berny optimization.
 Initialization pass.
                           ----------------------------
                           !    Initial Parameters    !
                           ! (Angstroms and Degrees)  !
 --------------------------                            --------------------------
 ! Name  Definition              Value          Derivative Info.                !
 --------------------------------------------------------------------------------
 ! R1    R(1,3)                  0.9624         estimate D2E/DX2                !
 ! R2    R(2,3)                  0.9624         estimate D2E/DX2                !
 ! A1    A(1,3,2)              102.7055         estimate D2E/DX2                !
 --------------------------------------------------------------------------------
 Trust Radius=3.00D-01 FncErr=1.00D-07 GrdErr=1.00D-06
 Number of steps in this run=     20 maximum allowed number of steps=    100.
 GradGradGradGradGradGradGradGradGradGradGradGradGradGradGradGradGradGrad

 Leave Link  103 at Mon Oct 19 08:01:53 2015, MaxMem= 3221225472 cpu:       0.4
 (Enter /usr/common/usg/g09/c1/g09/l202.exe)
                          Input orientation:                          
 ---------------------------------------------------------------------
 Center     Atomic      Atomic             Coordinates (Angstroms)
 Number     Number       Type             X           Y           Z
 ---------------------------------------------------------------------
      1          1           0        0.000000    0.751647   -0.479642
      2          1           0        0.000000   -0.751647   -0.479642
      3          8           0        0.000000    0.000000    0.121406
 ---------------------------------------------------------------------
                    Distance matrix (angstroms):
                    1          2          3
     1  H    0.000000
     2  H    1.503295   0.000000
     3  O    0.962410   0.962410   0.000000
 Stoichiometry    H2O
 Framework group  C2V[C2(O),SGV(H2)]
 Deg. of freedom     2
 Full point group                 C2V     NOp   4
 Largest Abelian subgroup         C2V     NOp   4
 Largest concise Abelian subgroup C2      NOp   2
                         Standard orientation:                         
 ---------------------------------------------------------------------
 Center     Atomic      Atomic             Coordinates (Angstroms)
 Number     Number       Type             X           Y           Z
 ---------------------------------------------------------------------
      1          1           0        0.000000    0.751647   -0.480838
      2          1           0        0.000000   -0.751647   -0.480838
      3          8           0        0.000000    0.000000    0.120210
 ---------------------------------------------------------------------
 Rotational constants (GHZ):    781.5004838    443.7861037    283.0513761
 Leave Link  202 at Mon Oct 19 08:01:53 2015, MaxMem= 3221225472 cpu:       0.5
 (Enter /usr/common/usg/g09/c1/g09/l301.exe)
 General basis read from cards:  (5D, 7F)
 Centers:   1  2
 S 3 1.00
     Exponent=  1.3010701000D+01 Coefficients=  1.9682158000D-02
     Exponent=  1.9622572000D+00 Coefficients=  1.3796524000D-01
     Exponent=  4.4453796000D-01 Coefficients=  4.7831935000D-01
 S 1 1.00
     Exponent=  1.2194962000D-01 Coefficients=  1.0000000000D+00
 P 1 1.00
     Exponent=  8.0000000000D-01 Coefficients=  1.0000000000D+00
 ****
 Centers:   3
 S 5 1.00
     Exponent=  2.2661767785D+03 Coefficients= -5.3431809926D-03
     Exponent=  3.4087010191D+02 Coefficients= -3.9890039230D-02
     Exponent=  7.7363135167D+01 Coefficients= -1.7853911985D-01
     Exponent=  2.1479644940D+01 Coefficients= -4.6427684959D-01
     Exponent=  6.6589433124D+00 Coefficients= -4.4309745172D-01
 S 1 1.00
     Exponent=  8.0975975668D-01 Coefficients=  1.0000000000D+00
 S 1 1.00
     Exponent=  2.5530772234D-01 Coefficients=  1.0000000000D+00
 P 3 1.00
     Exponent=  1.7721504317D+01 Coefficients=  4.3394573193D-02
     Exponent=  3.8635505440D+00 Coefficients=  2.3094120765D-01
     Exponent=  1.0480920883D+00 Coefficients=  5.1375311064D-01
 P 1 1.00
     Exponent=  2.7641544411D-01 Coefficients=  1.0000000000D+00
 D 1 1.00
     Exponent=  1.2000000000D+00 Coefficients=  1.0000000000D+00
 ****
 Ernie: Thresh=  0.10000D-02 Tol=  0.10000D-05 Strict=F.
 There are    11 symmetry adapted basis functions of A1  symmetry.
 There are     2 symmetry adapted basis functions of A2  symmetry.
 There are     4 symmetry adapted basis functions of B1  symmetry.
 There are     7 symmetry adapted basis functions of B2  symmetry.
 Integral buffers will be    131072 words long.
 Raffenetti 2 integral format.
 Two-electron integral symmetry is turned on.
    24 basis functions,    39 primitive gaussians,    25 cartesian basis functions
     5 alpha electrons        5 beta electrons
       nuclear repulsion energy         9.1495487720 Hartrees.
 IExCor= 4134 DFT=T Ex+Corr=M06L ExCW=0 ScaHFX=  0.000000
 ScaDFX=  1.000000  1.000000  1.000000  1.000000 ScalE2=  1.000000  1.000000
 IRadAn=      5 IRanWt=     -1 IRanGd=            0 ICorTp=0
 NAtoms=    3 NActive=    3 NUniq=    2 SFac= 2.25D+00 NAtFMM=   60 NAOKFM=F Big=F
 Leave Link  301 at Mon Oct 19 08:01:54 2015, MaxMem= 3221225472 cpu:       2.0
 (Enter /usr/common/usg/g09/c1/g09/linda-exe/l302.exel)
 NPDir=0 NMtPBC=     1 NCelOv=     1 NCel=       1 NClECP=     1 NCelD=      1
         NCelK=      1 NCelE2=     1 NClLst=     1 CellRange=     0.0.
 One-electron integrals computed using PRISM.
 One-electron integral symmetry used in STVInt
 NBasis=    24 RedAO= T  NBF=    11     2     4     7
 NBsUse=    24 1.00D-06 NBFU=    11     2     4     7
 Precomputing XC quadrature grid using
 IXCGrd= 2 IRadAn=           5 IRanWt=          -1 IRanGd=           0 AccXCQ= 0.00D+00.
 NRdTot=     244 NPtTot=       65214 NUsed=       66974 NTot=       67006
 NSgBfM=    25    25    25    25    25 NAtAll=     3     3.
 Leave Link  302 at Mon Oct 19 08:01:55 2015, MaxMem= 3221225472 cpu:       7.9
lexec executing /usr/common/usg/g09/c1/g09/l303.exe 3221225472 checkpoint.chk 1 /scratch/scratchdirs/pmiro/g09/13455143.hopque01/Gau-8777.int 0 /scratch/scratchdirs/pmiro/g09/13455143.hopque01/Gau-8777.rwf 0 /scratch/scratchdirs/pmiro/g09/13455143.hopque01/Gau-8777.d2e 0 /scratch/scratchdirs/pmiro/g09/13455143.hopque01/Gau-8777.scr 0 /scratch/scratchdirs/pmiro/g09/13455143.hopque01/Gau-8776.inp 0 junk.out 0 /scratch/scratchdirs/pmiro/g09/13455143.hopque01/Gau-8777.nex 0

numenv is 0

 (Enter /usr/common/usg/g09/c1/g09/l303.exe)
 DipDrv:  MaxL=1.
 Leave Link  303 at Mon Oct 19 08:01:55 2015, MaxMem= 3221225472 cpu:       1.7
 (Enter /usr/common/usg/g09/c1/g09/linda-exe/l401.exel)
 Harris functional with IExCor= 1009 diagonalized for initial guess.
 ExpMin= 1.22D-01 ExpMax= 2.27D+03 ExpMxC= 3.41D+02 IAcc=3 IRadAn=         5 AccDes= 0.00D+00
 HarFok:  IExCor= 1009 AccDes= 0.00D+00 IRadAn=         5 IDoV= 1
 ScaDFX=  1.000000  1.000000  1.000000  1.000000
 FoFCou: FMM=F IPFlag=           0 FMFlag=      100000 FMFlg1=           0
         NFxFlg=           0 DoJE=T BraDBF=F KetDBF=T FulRan=T
         Omega=  0.000000  0.000000  1.000000  0.000000  0.000000 ICntrl=     500 IOpCl=  0
         NMat0=    1 NMatS0=    1 NMatT0=    0 NMatD0=    1 NMtDS0=    0 NMtDT0=    0
         I1Cent=           4 NGrid=           0.
 Petite list used in FoFCou.
 Harris En= -76.3209609581625    
 Initial guess orbital symmetries:
       Occupied  (A1) (A1) (B2) (A1) (B1)
       Virtual   (A1) (B2) (B2) (A1) (A1) (B1) (B2) (A1) (A2) (A1)
                 (B1) (B2) (B2) (A1) (B1) (A2) (A1) (A1) (B2)
 The electronic state of the initial guess is 1-A1.
 Leave Link  401 at Mon Oct 19 08:01:56 2015, MaxMem= 3221225472 cpu:       7.7
lexec executing /usr/common/usg/g09/c1/g09/linda-exe/l502.exe 3221225472 checkpoint.chk 1 /scratch/scratchdirs/pmiro/g09/13455143.hopque01/Gau-8777.int 0 /scratch/scratchdirs/pmiro/g09/13455143.hopque01/Gau-8777.rwf 0 /scratch/scratchdirs/pmiro/g09/13455143.hopque01/Gau-8777.d2e 0 /scratch/scratchdirs/pmiro/g09/13455143.hopque01/Gau-8777.scr 0 /scratch/scratchdirs/pmiro/g09/13455143.hopque01/Gau-8776.inp 0 junk.out 0 /scratch/scratchdirs/pmiro/g09/13455143.hopque01/Gau-8777.nex 0

numenv is 0

 (Enter /usr/common/usg/g09/c1/g09/linda-exe/l502.exel)
 Closed shell SCF:
 Requested convergence on RMS density matrix=1.00D-08 within 128 cycles.
 Requested convergence on MAX density matrix=1.00D-06.
 Requested convergence on             energy=1.00D-06.
 No special actions if energy rises.
 Using DIIS extrapolation, IDIIS=  1040.
 Integral symmetry usage will be decided dynamically.
        66934 words used for storage of precomputed grid.
 Keep J ints in memory in canonical form, NReq=1002356.
 IEnd=       87807 IEndB=       87807 NGot=  3221225472 MDV=  3221101953
 LenX=  3221101953 LenY=  3221100887
 Symmetry not used in FoFDir.
 MinBra= 0 MaxBra= 2 Meth= 1.
 IRaf=       0 NMat=   1 IRICut=       1 DoRegI=T DoRafI=F ISym2E= 0 JSym2E=0.
 Integral accuracy reduced to 1.0D-05 until final iterations.

 Cycle   1  Pass 0  IDiag  1:
 E= -76.2881950827723    
 DIIS: error= 7.19D-02 at cycle   1 NSaved=   1.
 NSaved= 1 IEnMin= 1 EnMin= -76.2881950827723     IErMin= 1 ErrMin= 7.19D-02
 ErrMax= 7.19D-02 EMaxC= 1.00D-01 BMatC= 8.04D-02 BMatP= 8.04D-02
 IDIUse=3 WtCom= 2.81D-01 WtEn= 7.19D-01
 Coeff-Com:  0.100D+01
 Coeff-En:   0.100D+01
 Coeff:      0.100D+01
 Gap=     0.171 Goal=   None    Shift=    0.000
 GapD=    0.171 DampG=1.000 DampE=0.500 DampFc=0.5000 IDamp=-1.
 Damping current iteration by 5.00D-01
 RMSDP=1.91D-02 MaxDP=1.59D-01              OVMax= 1.94D-01

 Cycle   2  Pass 0  IDiag  1:
 E= -76.3060059331248     Delta-E=       -0.017810850353 Rises=F Damp=T
 DIIS: error= 1.93D-02 at cycle   2 NSaved=   2.
 NSaved= 2 IEnMin= 2 EnMin= -76.3060059331248     IErMin= 2 ErrMin= 1.93D-02
 ErrMax= 1.93D-02 EMaxC= 1.00D-01 BMatC= 7.11D-03 BMatP= 8.04D-02
 IDIUse=3 WtCom= 8.07D-01 WtEn= 1.93D-01
 Coeff-Com:  0.213D+00 0.787D+00
 Coeff-En:   0.349D+00 0.651D+00
 Coeff:      0.239D+00 0.761D+00
 Gap=     0.298 Goal=   None    Shift=    0.000
 RMSDP=3.05D-03 MaxDP=3.64D-02 DE=-1.78D-02 OVMax= 1.15D-01

 Cycle   3  Pass 0  IDiag  1:
 E= -76.3499240421869     Delta-E=       -0.043918109062 Rises=F Damp=F
 DIIS: error= 2.66D-03 at cycle   3 NSaved=   3.
 NSaved= 3 IEnMin= 3 EnMin= -76.3499240421869     IErMin= 3 ErrMin= 2.66D-03
 ErrMax= 2.66D-03 EMaxC= 1.00D-01 BMatC= 1.55D-04 BMatP= 7.11D-03
 IDIUse=3 WtCom= 9.73D-01 WtEn= 2.66D-02
 Coeff-Com:  0.380D-01-0.786D-02 0.970D+00
 Coeff-En:   0.000D+00 0.000D+00 0.100D+01
 Coeff:      0.369D-01-0.765D-02 0.971D+00
 Gap=     0.304 Goal=   None    Shift=    0.000
 RMSDP=3.29D-04 MaxDP=2.67D-03 DE=-4.39D-02 OVMax= 3.68D-03

 Cycle   4  Pass 0  IDiag  1:
 E= -76.3500332856934     Delta-E=       -0.000109243507 Rises=F Damp=F
 DIIS: error= 3.64D-04 at cycle   4 NSaved=   4.
 NSaved= 4 IEnMin= 4 EnMin= -76.3500332856934     IErMin= 4 ErrMin= 3.64D-04
 ErrMax= 3.64D-04 EMaxC= 1.00D-01 BMatC= 2.32D-06 BMatP= 1.55D-04
 IDIUse=3 WtCom= 9.96D-01 WtEn= 3.64D-03
 Coeff-Com:  0.688D-02-0.133D-01 0.238D+00 0.769D+00
 Coeff-En:   0.000D+00 0.000D+00 0.000D+00 0.100D+01
 Coeff:      0.685D-02-0.132D-01 0.237D+00 0.769D+00
 Gap=     0.304 Goal=   None    Shift=    0.000
 RMSDP=3.40D-05 MaxDP=2.13D-04 DE=-1.09D-04 OVMax= 3.48D-04

 Cycle   5  Pass 0  IDiag  1:
 E= -76.3500348167747     Delta-E=       -0.000001531081 Rises=F Damp=F
 DIIS: error= 4.27D-05 at cycle   5 NSaved=   5.
 NSaved= 5 IEnMin= 5 EnMin= -76.3500348167747     IErMin= 5 ErrMin= 4.27D-05
 ErrMax= 4.27D-05 EMaxC= 1.00D-01 BMatC= 2.95D-08 BMatP= 2.32D-06
 IDIUse=1 WtCom= 1.00D+00 WtEn= 0.00D+00
 Coeff-Com:  0.844D-03-0.151D-02 0.161D-01 0.706D-01 0.914D+00
 Coeff:      0.844D-03-0.151D-02 0.161D-01 0.706D-01 0.914D+00
 Gap=     0.305 Goal=   None    Shift=    0.000
 RMSDP=5.20D-06 MaxDP=4.82D-05 DE=-1.53D-06 OVMax= 5.14D-05

 Initial convergence to 1.0D-05 achieved.  Increase integral accuracy.
 Cycle   6  Pass 1  IDiag  1:
 E= -76.3500217703254     Delta-E=        0.000013046449 Rises=F Damp=F
 DIIS: error= 2.89D-05 at cycle   1 NSaved=   1.
 NSaved= 1 IEnMin= 1 EnMin= -76.3500217703254     IErMin= 1 ErrMin= 2.89D-05
 ErrMax= 2.89D-05 EMaxC= 1.00D-01 BMatC= 1.80D-08 BMatP= 1.80D-08
 IDIUse=1 WtCom= 1.00D+00 WtEn= 0.00D+00
 Coeff-Com:  0.100D+01
 Coeff:      0.100D+01
 Gap=     0.305 Goal=   None    Shift=    0.000
 RMSDP=5.20D-06 MaxDP=4.82D-05 DE= 1.30D-05 OVMax= 3.53D-05

 Cycle   7  Pass 1  IDiag  1:
 E= -76.3500217853156     Delta-E=       -0.000000014990 Rises=F Damp=F
 DIIS: error= 2.91D-06 at cycle   2 NSaved=   2.
 NSaved= 2 IEnMin= 2 EnMin= -76.3500217853156     IErMin= 2 ErrMin= 2.91D-06
 ErrMax= 2.91D-06 EMaxC= 1.00D-01 BMatC= 1.31D-10 BMatP= 1.80D-08
 IDIUse=1 WtCom= 1.00D+00 WtEn= 0.00D+00
 Coeff-Com:  0.146D-02 0.999D+00
 Coeff:      0.146D-02 0.999D+00
 Gap=     0.305 Goal=   None    Shift=    0.000
 RMSDP=3.99D-07 MaxDP=2.96D-06 DE=-1.50D-08 OVMax= 3.21D-06

 Cycle   8  Pass 1  IDiag  1:
 E= -76.3500217853872     Delta-E=       -0.000000000072 Rises=F Damp=F
 DIIS: error= 1.15D-06 at cycle   3 NSaved=   3.
 NSaved= 3 IEnMin= 3 EnMin= -76.3500217853872     IErMin= 3 ErrMin= 1.15D-06
 ErrMax= 1.15D-06 EMaxC= 1.00D-01 BMatC= 2.98D-11 BMatP= 1.31D-10
 IDIUse=1 WtCom= 1.00D+00 WtEn= 0.00D+00
 Coeff-Com: -0.560D-02 0.300D+00 0.705D+00
 Coeff:     -0.560D-02 0.300D+00 0.705D+00
 Gap=     0.305 Goal=   None    Shift=    0.000
 RMSDP=1.86D-07 MaxDP=1.61D-06 DE=-7.16D-11 OVMax= 1.64D-06

 Cycle   9  Pass 1  IDiag  1:
 E= -76.3500217854012     Delta-E=       -0.000000000014 Rises=F Damp=F
 DIIS: error= 7.20D-07 at cycle   4 NSaved=   4.
 NSaved= 4 IEnMin= 4 EnMin= -76.3500217854012     IErMin= 4 ErrMin= 7.20D-07
 ErrMax= 7.20D-07 EMaxC= 1.00D-01 BMatC= 8.80D-12 BMatP= 2.98D-11
 IDIUse=1 WtCom= 1.00D+00 WtEn= 0.00D+00
 Coeff-Com: -0.248D-02 0.118D+00 0.398D+00 0.487D+00
 Coeff:     -0.248D-02 0.118D+00 0.398D+00 0.487D+00
 Gap=     0.305 Goal=   None    Shift=    0.000
 RMSDP=8.65D-08 MaxDP=6.95D-07 DE=-1.40D-11 OVMax= 8.71D-07

 Cycle  10  Pass 1  IDiag  1:
 E= -76.3500217854077     Delta-E=       -0.000000000006 Rises=F Damp=F
 DIIS: error= 7.55D-08 at cycle   5 NSaved=   5.
 NSaved= 5 IEnMin= 5 EnMin= -76.3500217854077     IErMin= 5 ErrMin= 7.55D-08
 ErrMax= 7.55D-08 EMaxC= 1.00D-01 BMatC= 1.25D-13 BMatP= 8.80D-12
 IDIUse=1 WtCom= 1.00D+00 WtEn= 0.00D+00
 Coeff-Com: -0.321D-03-0.294D-02 0.254D-01 0.126D+00 0.852D+00
 Coeff:     -0.321D-03-0.294D-02 0.254D-01 0.126D+00 0.852D+00
 Gap=     0.305 Goal=   None    Shift=    0.000
 RMSDP=9.34D-09 MaxDP=7.51D-08 DE=-6.42D-12 OVMax= 1.00D-07

 SCF Done:  E(RM06L) =  -76.3500217854     A.U. after   10 cycles
             Convg  =    0.9338D-08             -V/T =  2.0064
 KE= 7.586390137452D+01 PE=-1.988649168782D+02 EE= 3.750144494631D+01
 Leave Link  502 at Mon Oct 19 08:01:57 2015, MaxMem= 3221225472 cpu:      10.3
lexec executing /usr/common/usg/g09/c1/g09/l601.exe 3221225472 checkpoint.chk 1 /scratch/scratchdirs/pmiro/g09/13455143.hopque01/Gau-8777.int 0 /scratch/scratchdirs/pmiro/g09/13455143.hopque01/Gau-8777.rwf 0 /scratch/scratchdirs/pmiro/g09/13455143.hopque01/Gau-8777.d2e 0 /scratch/scratchdirs/pmiro/g09/13455143.hopque01/Gau-8777.scr 0 /scratch/scratchdirs/pmiro/g09/13455143.hopque01/Gau-8776.inp 0 junk.out 0 /scratch/scratchdirs/pmiro/g09/13455143.hopque01/Gau-8777.nex 0

numenv is 0

 (Enter /usr/common/usg/g09/c1/g09/l601.exe)
 Copying SCF densities to generalized density rwf, IOpCl= 0 IROHF=0.

 **********************************************************************

            Population analysis using the SCF density.

 **********************************************************************

 Orbital symmetries:
       Occupied  (A1) (A1) (B2) (A1) (B1)
       Virtual   (A1) (B2) (B2) (A1) (A1) (B1) (B2) (A1) (A2) (A1)
                 (B1) (B2) (B2) (A1) (B1) (A2) (A1) (A1) (B2)
 The electronic state is 1-A1.
 Alpha  occ. eigenvalues --  -18.95765  -0.95527  -0.47527  -0.33312  -0.25129
 Alpha virt. eigenvalues --    0.05324   0.12616   0.54586   0.61134   0.91689
 Alpha virt. eigenvalues --    0.92388   1.00839   1.09274   1.35279   1.39539
 Alpha virt. eigenvalues --    1.55071   1.81745   2.22443   2.27331   2.98663
 Alpha virt. eigenvalues --    3.01446   3.21397   3.53521   3.89122
          Condensed to atoms (all electrons):
              1          2          3
     1  H    0.532548  -0.024418   0.326551
     2  H   -0.024418   0.532548   0.326551
     3  O    0.326551   0.326551   7.677539
 Mulliken atomic charges:
              1
     1  H    0.165320
     2  H    0.165320
     3  O   -0.330640
 Sum of Mulliken atomic charges =   0.00000
 Mulliken charges with hydrogens summed into heavy atoms:
              1
     3  O    0.000000
 Sum of Mulliken charges with hydrogens summed into heavy atoms =   0.00000
 Electronic spatial extent (au):  <R**2>=             18.8785
 Charge=              0.0000 electrons
 Dipole moment (field-independent basis, Debye):
    X=              0.0000    Y=              0.0000    Z=             -2.0148  Tot=              2.0148
 Quadrupole moment (field-independent basis, Debye-Ang):
   XX=             -7.0028   YY=             -4.2924   ZZ=             -5.8933
   XY=              0.0000   XZ=              0.0000   YZ=              0.0000
 Traceless Quadrupole moment (field-independent basis, Debye-Ang):
   XX=             -1.2733   YY=              1.4371   ZZ=             -0.1638
   XY=              0.0000   XZ=              0.0000   YZ=              0.0000
 Octapole moment (field-independent basis, Debye-Ang**2):
  XXX=              0.0000  YYY=              0.0000  ZZZ=             -1.1495  XYY=              0.0000
  XXY=              0.0000  XXZ=             -0.3025  XZZ=              0.0000  YZZ=              0.0000
  YYZ=             -1.1597  XYZ=              0.0000
 Hexadecapole moment (field-independent basis, Debye-Ang**3):
 XXXX=             -4.8201 YYYY=             -5.8045 ZZZZ=             -6.0170 XXXY=              0.0000
 XXXZ=              0.0000 YYYX=              0.0000 YYYZ=              0.0000 ZZZX=              0.0000
 ZZZY=              0.0000 XXYY=             -2.0241 XXZZ=             -1.8620 YYZZ=             -1.6290
 XXYZ=              0.0000 YYXZ=              0.0000 ZZXY=              0.0000
 N-N= 9.149548772007D+00 E-N=-1.988649185815D+02  KE= 7.586390137452D+01
 Symmetry A1   KE= 6.775638361692D+01
 Symmetry A2   KE= 7.610246331227D-36
 Symmetry B1   KE= 4.573286247275D+00
 Symmetry B2   KE= 3.534231510323D+00
 No NMR shielding tensors so no spin-rotation constants.
 Leave Link  601 at Mon Oct 19 08:01:57 2015, MaxMem= 3221225472 cpu:       5.4
 (Enter /usr/common/usg/g09/c1/g09/linda-exe/l701.exel)
 Compute integral first derivatives.
 ... and contract with generalized density number  0.
 Leave Link  701 at Mon Oct 19 08:01:58 2015, MaxMem= 3221225472 cpu:       4.7
lexec executing /usr/common/usg/g09/c1/g09/l702.exe 3221225472 checkpoint.chk 1 /scratch/scratchdirs/pmiro/g09/13455143.hopque01/Gau-8777.int 0 /scratch/scratchdirs/pmiro/g09/13455143.hopque01/Gau-8777.rwf 0 /scratch/scratchdirs/pmiro/g09/13455143.hopque01/Gau-8777.d2e 0 /scratch/scratchdirs/pmiro/g09/13455143.hopque01/Gau-8777.scr 0 /scratch/scratchdirs/pmiro/g09/13455143.hopque01/Gau-8776.inp 0 junk.out 0 /scratch/scratchdirs/pmiro/g09/13455143.hopque01/Gau-8777.nex 0

numenv is 0

 (Enter /usr/common/usg/g09/c1/g09/l702.exe)
 L702 exits ... SP integral derivatives will be done elsewhere.
 Leave Link  702 at Mon Oct 19 08:01:58 2015, MaxMem= 3221225472 cpu:       1.1
 (Enter /usr/common/usg/g09/c1/g09/linda-exe/l703.exel)
 Compute integral first derivatives, UseDBF=F ICtDFT=           0.
 Integral derivatives from FoFDir, PRISM(SPDF).
 Calling FoFJK, ICntrl=      2527 FMM=F ISym2X=1 I1Cent= 0 IOpClX= 0 NMat=1 NMatS=1 NMatT=0.
 FoFCou: FMM=F IPFlag=           0 FMFlag=      100000 FMFlg1=         800
         NFxFlg=           0 DoJE=F BraDBF=F KetDBF=F FulRan=T
         Omega=  0.000000  0.000000  1.000000  0.000000  0.000000 ICntrl=    2527 IOpCl=  0
         NMat0=    1 NMatS0=    1 NMatT0=    0 NMatD0=    1 NMtDS0=    0 NMtDT0=    0
         I1Cent=           0 NGrid=           0.
 Petite list used in FoFCou.
 Leave Link  703 at Mon Oct 19 08:02:01 2015, MaxMem= 3221225472 cpu:       5.4
lexec executing /usr/common/usg/g09/c1/g09/l716.exe 3221225472 checkpoint.chk 1 /scratch/scratchdirs/pmiro/g09/13455143.hopque01/Gau-8777.int 0 /scratch/scratchdirs/pmiro/g09/13455143.hopque01/Gau-8777.rwf 0 /scratch/scratchdirs/pmiro/g09/13455143.hopque01/Gau-8777.d2e 0 /scratch/scratchdirs/pmiro/g09/13455143.hopque01/Gau-8777.scr 0 /scratch/scratchdirs/pmiro/g09/13455143.hopque01/Gau-8776.inp 0 junk.out 0 /scratch/scratchdirs/pmiro/g09/13455143.hopque01/Gau-8777.nex 0

numenv is 0

 (Enter /usr/common/usg/g09/c1/g09/l716.exe)
 Dipole        =-2.92536341D-17 0.00000000D+00-7.92686114D-01
 ***** Axes restored to original set *****
 -------------------------------------------------------------------
 Center     Atomic                   Forces (Hartrees/Bohr)
 Number     Number              X              Y              Z
 -------------------------------------------------------------------
      1        1           0.000000000   -0.000078938   -0.000061838
      2        1           0.000000000    0.000078938   -0.000061838
      3        8           0.000000000    0.000000000    0.000123677
 -------------------------------------------------------------------
 Cartesian Forces:  Max     0.000123677 RMS     0.000062722
 Leave Link  716 at Mon Oct 19 08:02:02 2015, MaxMem= 3221225472 cpu:       1.1
 (Enter /usr/common/usg/g09/c1/g09/l103.exe)

 GradGradGradGradGradGradGradGradGradGradGradGradGradGradGradGradGradGrad
 Berny optimization.
 Internal  Forces:  Max     0.000177495 RMS     0.000104188
 Search for a local minimum.
 Step number   1 out of a maximum of   20
 All quantities printed in internal units (Hartrees-Bohrs-Radians)
 RMS Force = .10419D-03 SwitMx=.10000D-02 MixMth= 2
 Mixed Optimization -- En-DIIS/RFO-DIIS
 Second derivative matrix not updated -- first step.
 The second derivative matrix:
                          R1        R2        A1
           R1           0.54958
           R2           0.00000   0.54958
           A1           0.00000   0.00000   0.16000
 ITU=  0
     Eigenvalues ---    0.16000   0.54958   0.54958
 RFO step:  Lambda=-1.98832853D-07 EMin= 1.60000000D-01
 Linear search not attempted -- first point.
 Iteration  1 RMS(Cart)=  0.00064941 RMS(Int)=  0.00000023
 Iteration  2 RMS(Cart)=  0.00000019 RMS(Int)=  0.00000000
 ClnCor:  largest displacement from symmetrization is 3.25D-19 for atom     3.
 Variable       Old X    -DE/DX   Delta X   Delta X   Delta X     New X
                                 (Linear)    (Quad)   (Total)
    R1        1.81869  -0.00002   0.00000  -0.00004  -0.00004   1.81865
    R2        1.81869  -0.00002   0.00000  -0.00004  -0.00004   1.81865
    A1        1.79255  -0.00018   0.00000  -0.00111  -0.00111   1.79144
         Item               Value     Threshold  Converged?
 Maximum Force            0.000177     0.000450     YES
 RMS     Force            0.000104     0.000300     YES
 Maximum Displacement     0.000663     0.001800     YES
 RMS     Displacement     0.000650     0.001200     YES
 Predicted change in Energy=-9.941643D-08
 Optimization completed.
    -- Stationary point found.
                           ----------------------------
                           !   Optimized Parameters   !
                           ! (Angstroms and Degrees)  !
 --------------------------                            --------------------------
 ! Name  Definition              Value          Derivative Info.                !
 --------------------------------------------------------------------------------
 ! R1    R(1,3)                  0.9624         -DE/DX =    0.0                 !
 ! R2    R(2,3)                  0.9624         -DE/DX =    0.0                 !
 ! A1    A(1,3,2)              102.7055         -DE/DX =   -0.0002              !
 --------------------------------------------------------------------------------
 GradGradGradGradGradGradGradGradGradGradGradGradGradGradGradGradGradGrad

 Largest change from initial coordinates is atom    0       0.000 Angstoms.
 Leave Link  103 at Mon Oct 19 08:02:02 2015, MaxMem= 3221225472 cpu:       3.8
 (Enter /usr/common/usg/g09/c1/g09/l202.exe)
                          Input orientation:                          
 ---------------------------------------------------------------------
 Center     Atomic      Atomic             Coordinates (Angstroms)
 Number     Number       Type             X           Y           Z
 ---------------------------------------------------------------------
      1          1           0        0.000000    0.751647   -0.479642
      2          1           0        0.000000   -0.751647   -0.479642
      3          8           0        0.000000    0.000000    0.121406
 ---------------------------------------------------------------------
                    Distance matrix (angstroms):
                    1          2          3
     1  H    0.000000
     2  H    1.503295   0.000000
     3  O    0.962410   0.962410   0.000000
 Stoichiometry    H2O
 Framework group  C2V[C2(O),SGV(H2)]
 Deg. of freedom     2
 Full point group                 C2V     NOp   4
 RotChk:  IX=0 Diff= 2.24D-16
 Largest Abelian subgroup         C2V     NOp   4
 Largest concise Abelian subgroup C2      NOp   2
                         Standard orientation:                         
 ---------------------------------------------------------------------
 Center     Atomic      Atomic             Coordinates (Angstroms)
 Number     Number       Type             X           Y           Z
 ---------------------------------------------------------------------
      1          1           0        0.000000    0.751647   -0.480838
      2          1           0        0.000000   -0.751647   -0.480838
      3          8           0        0.000000    0.000000    0.120210
 ---------------------------------------------------------------------
 Rotational constants (GHZ):    781.5004838    443.7861037    283.0513761
 Leave Link  202 at Mon Oct 19 08:02:02 2015, MaxMem= 3221225472 cpu:       0.3
 (Enter /usr/common/usg/g09/c1/g09/l9999.exe)
 1\1\GINC-NID00129\FOpt\RM06L\Gen\H2O1\PMIRO\19-Oct-2015\0\\#p rm06l/ge
 n opt Integral(Grid=UltraFineGrid) freq\\Oniom Calculation 1\\0,1\H,0.
 ,0.7516474338,-0.4796423095\H,0.,-0.7516474338,-0.4796423095\O,0.,0.,0
 .121405619\\Version=AM64L-G09RevC.01\State=1-A1\HF=-76.3500218\RMSD=9.
 338e-09\RMSF=6.272e-05\Dipole=0.,0.,-0.7926861\Quadrupole=-0.9466816,1
 .068442,-0.1217603,0.,0.,0.\PG=C02V [C2(O1),SGV(H2)]\\@


 WHEN ALL ELSE FAILS, LOOK AT THE SCHRODINGER EQUATION.
     -- RUSSELL T. PACK, APRIL 1978
 Leave Link 9999 at Mon Oct 19 08:02:02 2015, MaxMem= 3221225472 cpu:       1.4
 Job cpu time:  0 days  0 hours  0 minutes 38.0 seconds.
 File lengths (MBytes):  RWF=      5 Int=      0 D2E=      0 Chk=      1 Scr=      1
 Normal termination of Gaussian 09 at Mon Oct 19 08:02:02 2015.
 (Enter /usr/common/usg/g09/c1/g09/l1.exe)
 Link1:  Proceeding to internal job step number  2.
 -----------------------------------------------------------------
 #P Geom=AllCheck Guess=TCheck SCRF=Check GenChk RM06L/ChkBas Freq
 -----------------------------------------------------------------
 1/10=4,29=7,30=1,38=1,40=1/1,3;
 2/12=2,40=1/2;
 3/5=7,6=2,11=2,14=-4,16=1,25=1,30=1,67=1,70=2,71=2,74=-53,75=-5,82=7,116=1/1,2,3;
 4/5=101/1;
 5/5=2,98=1/2;
 8/6=4,10=90,11=11/1;
 11/6=1,8=1,9=11,15=111,16=1/1,2,10;
 10/6=1/2;
 6/7=2,8=2,9=2,10=2,18=1,28=1/1;
 7/8=1,10=1,25=1/1,2,3,16;
 1/10=4,30=1/3;
 99//99;
 Leave Link    1 at Mon Oct 19 08:02:02 2015, MaxMem= 3221225472 cpu:       2.1
 (Enter /usr/common/usg/g09/c1/g09/l101.exe)
 Structure from the checkpoint file:  checkpoint.chk
 -------------------
 Oniom Calculation 1
 -------------------
 Charge =  0 Multiplicity = 1
 Redundant internal coordinates found in file.
 H,0,0.,0.7516474338,-0.4796423095
 H,0,0.,-0.7516474338,-0.4796423095
 O,0,0.,0.,0.121405619
 Recover connectivity data from disk.
 NAtoms=      3 NQM=        0 NQMF=       0 NMMI=      3 NMMIF=      0
                NMic=       0 NMicF=      0.
                    Isotopes and Nuclear Properties:
 (Nuclear quadrupole moments (NQMom) in fm**2, nuclear magnetic moments (NMagM)
  in nuclear magnetons)

  Atom         1           2           3
 IAtWgt=           1           1          16
 AtmWgt=   1.0078250   1.0078250  15.9949146
 NucSpn=           1           1           0
 AtZEff=  -1.0000000  -1.0000000  -5.6000000
 NQMom=    0.0000000   0.0000000   0.0000000
 NMagM=    2.7928460   2.7928460   0.0000000
 Leave Link  101 at Mon Oct 19 08:02:03 2015, MaxMem= 3221225472 cpu:      17.0
 (Enter /usr/common/usg/g09/c1/g09/l103.exe)

 GradGradGradGradGradGradGradGradGradGradGradGradGradGradGradGradGradGrad
 Berny optimization.
 Initialization pass.
                           ----------------------------
                           !    Initial Parameters    !
                           ! (Angstroms and Degrees)  !
 --------------------------                            --------------------------
 ! Name  Definition              Value          Derivative Info.                !
 --------------------------------------------------------------------------------
 ! R1    R(1,3)                  0.9624         calculate D2E/DX2 analytically  !
 ! R2    R(2,3)                  0.9624         calculate D2E/DX2 analytically  !
 ! A1    A(1,3,2)              102.7055         calculate D2E/DX2 analytically  !
 --------------------------------------------------------------------------------
 Trust Radius=3.00D-01 FncErr=1.00D-07 GrdErr=1.00D-07
 Number of steps in this run=      2 maximum allowed number of steps=      2.
 GradGradGradGradGradGradGradGradGradGradGradGradGradGradGradGradGradGrad

 Leave Link  103 at Mon Oct 19 08:02:03 2015, MaxMem= 3221225472 cpu:       0.3
 (Enter /usr/common/usg/g09/c1/g09/l202.exe)
                          Input orientation:                          
 ---------------------------------------------------------------------
 Center     Atomic      Atomic             Coordinates (Angstroms)
 Number     Number       Type             X           Y           Z
 ---------------------------------------------------------------------
      1          1           0        0.000000    0.751647   -0.479642
      2          1           0        0.000000   -0.751647   -0.479642
      3          8           0        0.000000    0.000000    0.121406
 ---------------------------------------------------------------------
                    Distance matrix (angstroms):
                    1          2          3
     1  H    0.000000
     2  H    1.503295   0.000000
     3  O    0.962410   0.962410   0.000000
 Stoichiometry    H2O
 Framework group  C2V[C2(O),SGV(H2)]
 Deg. of freedom     2
 Full point group                 C2V     NOp   4
 RotChk:  IX=0 Diff= 1.31D-15
 Largest Abelian subgroup         C2V     NOp   4
 Largest concise Abelian subgroup C2      NOp   2
                         Standard orientation:                         
 ---------------------------------------------------------------------
 Center     Atomic      Atomic             Coordinates (Angstroms)
 Number     Number       Type             X           Y           Z
 ---------------------------------------------------------------------
      1          1           0        0.000000    0.751647   -0.480838
      2          1           0        0.000000   -0.751647   -0.480838
      3          8           0        0.000000    0.000000    0.120210
 ---------------------------------------------------------------------
 Rotational constants (GHZ):    781.5004838    443.7861037    283.0513761
 Leave Link  202 at Mon Oct 19 08:02:03 2015, MaxMem= 3221225472 cpu:       1.2
 (Enter /usr/common/usg/g09/c1/g09/l301.exe)
 Basis read from chk: checkpoint.chk (5D, 7F)
 No pseudopotential information found on chk file.
 There are    11 symmetry adapted basis functions of A1  symmetry.
 There are     2 symmetry adapted basis functions of A2  symmetry.
 There are     4 symmetry adapted basis functions of B1  symmetry.
 There are     7 symmetry adapted basis functions of B2  symmetry.
 Integral buffers will be    131072 words long.
 Raffenetti 2 integral format.
 Two-electron integral symmetry is turned on.
    24 basis functions,    39 primitive gaussians,    25 cartesian basis functions
     5 alpha electrons        5 beta electrons
       nuclear repulsion energy         9.1495487720 Hartrees.
 IExCor= 4134 DFT=T Ex+Corr=M06L ExCW=0 ScaHFX=  0.000000
 ScaDFX=  1.000000  1.000000  1.000000  1.000000 ScalE2=  1.000000  1.000000
 IRadAn=      5 IRanWt=     -1 IRanGd=            0 ICorTp=0
 NAtoms=    3 NActive=    3 NUniq=    2 SFac= 2.25D+00 NAtFMM=   60 NAOKFM=F Big=F
 No density basis found on file 20724.
 Leave Link  301 at Mon Oct 19 08:02:03 2015, MaxMem= 3221225472 cpu:       1.8
 (Enter /usr/common/usg/g09/c1/g09/linda-exe/l302.exel)
 NPDir=0 NMtPBC=     1 NCelOv=     1 NCel=       1 NClECP=     1 NCelD=      1
         NCelK=      1 NCelE2=     1 NClLst=     1 CellRange=     0.0.
 One-electron integrals computed using PRISM.
 One-electron integral symmetry used in STVInt
 NBasis=    24 RedAO= T  NBF=    11     2     4     7
 NBsUse=    24 1.00D-06 NBFU=    11     2     4     7
 Precomputing XC quadrature grid using
 IXCGrd= 2 IRadAn=           5 IRanWt=          -1 IRanGd=           0 AccXCQ= 0.00D+00.
 NRdTot=     244 NPtTot=       65214 NUsed=       66974 NTot=       67006
 NSgBfM=    25    25    25    25    25 NAtAll=     3     3.
 Leave Link  302 at Mon Oct 19 08:02:04 2015, MaxMem= 3221225472 cpu:       7.9
lexec executing /usr/common/usg/g09/c1/g09/l303.exe 3221225472 checkpoint.chk 1 /scratch/scratchdirs/pmiro/g09/13455143.hopque01/Gau-8777.int 0 /scratch/scratchdirs/pmiro/g09/13455143.hopque01/Gau-8777.rwf 0 /scratch/scratchdirs/pmiro/g09/13455143.hopque01/Gau-8777.d2e 0 /scratch/scratchdirs/pmiro/g09/13455143.hopque01/Gau-8777.scr 0 /scratch/scratchdirs/pmiro/g09/13455143.hopque01/Gau-8776.inp 0 junk.out 0 /scratch/scratchdirs/pmiro/g09/13455143.hopque01/Gau-8777.nex 0

numenv is 0

 (Enter /usr/common/usg/g09/c1/g09/l303.exe)
 DipDrv:  MaxL=1.
 Leave Link  303 at Mon Oct 19 08:02:05 2015, MaxMem= 3221225472 cpu:       1.3
 (Enter /usr/common/usg/g09/c1/g09/linda-exe/l401.exel)
 Initial guess read from the checkpoint file:  checkpoint.chk
 B after Tr=     0.000000    0.000000    0.000000
         Rot=    1.000000    0.000000    0.000000    0.000000 Ang=   0.00 deg.
 Guess basis will be translated and rotated to current coordinates.
 Initial guess orbital symmetries:
       Occupied  (A1) (A1) (B2) (A1) (B1)
       Virtual   (A1) (B2) (B2) (A1) (A1) (B1) (B2) (A1) (A2) (A1)
                 (B1) (B2) (B2) (A1) (B1) (A2) (A1) (A1) (B2)
 The electronic state of the initial guess is 1-A1.
 Leave Link  401 at Mon Oct 19 08:02:06 2015, MaxMem= 3221225472 cpu:       3.2
lexec executing /usr/common/usg/g09/c1/g09/linda-exe/l502.exe 3221225472 checkpoint.chk 1 /scratch/scratchdirs/pmiro/g09/13455143.hopque01/Gau-8777.int 0 /scratch/scratchdirs/pmiro/g09/13455143.hopque01/Gau-8777.rwf 0 /scratch/scratchdirs/pmiro/g09/13455143.hopque01/Gau-8777.d2e 0 /scratch/scratchdirs/pmiro/g09/13455143.hopque01/Gau-8777.scr 0 /scratch/scratchdirs/pmiro/g09/13455143.hopque01/Gau-8776.inp 0 junk.out 0 /scratch/scratchdirs/pmiro/g09/13455143.hopque01/Gau-8777.nex 0

numenv is 0

 (Enter /usr/common/usg/g09/c1/g09/linda-exe/l502.exel)
 Closed shell SCF:
 Requested convergence on RMS density matrix=1.00D-08 within 128 cycles.
 Requested convergence on MAX density matrix=1.00D-06.
 Requested convergence on             energy=1.00D-06.
 No special actions if energy rises.
 Using DIIS extrapolation, IDIIS=  1040.
 Integral symmetry usage will be decided dynamically.
        66934 words used for storage of precomputed grid.
 Keep J ints in memory in canonical form, NReq=1002356.
 IEnd=       87807 IEndB=       87807 NGot=  3221225472 MDV=  3221101953
 LenX=  3221101953 LenY=  3221100887
 Symmetry not used in FoFDir.
 MinBra= 0 MaxBra= 2 Meth= 1.
 IRaf=       0 NMat=   1 IRICut=       1 DoRegI=T DoRafI=F ISym2E= 0 JSym2E=0.

 Cycle   1  Pass 1  IDiag  1:
 E= -76.3500217854077    
 DIIS: error= 8.23D-10 at cycle   1 NSaved=   1.
 NSaved= 1 IEnMin= 1 EnMin= -76.3500217854077     IErMin= 1 ErrMin= 8.23D-10
 ErrMax= 8.23D-10 EMaxC= 1.00D-01 BMatC= 1.82D-17 BMatP= 1.82D-17
 IDIUse=1 WtCom= 1.00D+00 WtEn= 0.00D+00
 Coeff-Com:  0.100D+01
 Coeff:      0.100D+01
 Gap=     0.305 Goal=   None    Shift=    0.000
 RMSDP=2.42D-10 MaxDP=1.89D-09              OVMax= 1.84D-09

 SCF Done:  E(RM06L) =  -76.3500217854     A.U. after    1 cycles
             Convg  =    0.2422D-09             -V/T =  2.0064
 KE= 7.586390142063D+01 PE=-1.988649186276D+02 EE= 3.750144664957D+01
 Leave Link  502 at Mon Oct 19 08:02:07 2015, MaxMem= 3221225472 cpu:       6.4
lexec executing /usr/common/usg/g09/c1/g09/l801.exe 3221225472 checkpoint.chk 1 /scratch/scratchdirs/pmiro/g09/13455143.hopque01/Gau-8777.int 0 /scratch/scratchdirs/pmiro/g09/13455143.hopque01/Gau-8777.rwf 0 /scratch/scratchdirs/pmiro/g09/13455143.hopque01/Gau-8777.d2e 0 /scratch/scratchdirs/pmiro/g09/13455143.hopque01/Gau-8777.scr 0 /scratch/scratchdirs/pmiro/g09/13455143.hopque01/Gau-8776.inp 0 junk.out 0 /scratch/scratchdirs/pmiro/g09/13455143.hopque01/Gau-8777.nex 0

numenv is 0

 (Enter /usr/common/usg/g09/c1/g09/l801.exe)
 Range of M.O.s used for correlation:     1    24
 NBasis=    24 NAE=     5 NBE=     5 NFC=     0 NFV=     0
 NROrb=     24 NOA=     5 NOB=     5 NVA=    19 NVB=    19
 Leave Link  801 at Mon Oct 19 08:02:07 2015, MaxMem= 3221225472 cpu:       1.2
 (Enter /usr/common/usg/g09/c1/g09/linda-exe/l1101.exel)
 Using compressed storage, NAtomX=     3.
 Will process   4 centers per pass.
 Leave Link 1101 at Mon Oct 19 08:02:08 2015, MaxMem= 3221225472 cpu:       4.6
lexec executing /usr/common/usg/g09/c1/g09/l1102.exe 3221225472 checkpoint.chk 1 /scratch/scratchdirs/pmiro/g09/13455143.hopque01/Gau-8777.int 0 /scratch/scratchdirs/pmiro/g09/13455143.hopque01/Gau-8777.rwf 0 /scratch/scratchdirs/pmiro/g09/13455143.hopque01/Gau-8777.d2e 0 /scratch/scratchdirs/pmiro/g09/13455143.hopque01/Gau-8777.scr 0 /scratch/scratchdirs/pmiro/g09/13455143.hopque01/Gau-8776.inp 0 junk.out 0 /scratch/scratchdirs/pmiro/g09/13455143.hopque01/Gau-8777.nex 0

numenv is 0

 (Enter /usr/common/usg/g09/c1/g09/l1102.exe)
 Symmetrizing basis deriv contribution to polar:
 IMax=3 JMax=2 DiffMx= 0.00D+00
 Leave Link 1102 at Mon Oct 19 08:02:08 2015, MaxMem= 3221225472 cpu:       1.8
 (Enter /usr/common/usg/g09/c1/g09/linda-exe/l1110.exel)
 Forming Gx(P) for the SCF density, NAtomX=     3.
 Integral derivatives from FoFDir/FoFCou, PRISM(SPDF).
 Do as many integral derivatives as possible in FoFDir.
 G2DrvN: MDV=    3221225344.
 G2DrvN: will do     4 centers at a time, making    1 passes doing MaxLOS=2.
 Calling FoFCou, ICntrl=  3507 FMM=F I1Cent=   0 AccDes= 0.00D+00.
 FoFCou: FMM=F IPFlag=           0 FMFlag=      100000 FMFlg1=           0
         NFxFlg=           0 DoJE=F BraDBF=F KetDBF=F FulRan=T
         Omega=  0.000000  0.000000  1.000000  0.000000  0.000000 ICntrl=    3507 IOpCl=  0
         NMat0=    1 NMatS0=    1 NMatT0=    0 NMatD0=    1 NMtDS0=    0 NMtDT0=    0
         I1Cent=           0 NGrid=           0.
 Petite list used in FoFCou.
 FoFDir/FoFCou used for L=0 through L=2.
 End of G2Drv Frequency-dependent properties file   721 does not exist.
 End of G2Drv Frequency-dependent properties file   722 does not exist.
 Leave Link 1110 at Mon Oct 19 08:02:10 2015, MaxMem= 3221225472 cpu:       7.3
lexec executing /usr/common/usg/g09/c1/g09/linda-exe/l1002.exe 3221225472 checkpoint.chk 1 /scratch/scratchdirs/pmiro/g09/13455143.hopque01/Gau-8777.int 0 /scratch/scratchdirs/pmiro/g09/13455143.hopque01/Gau-8777.rwf 0 /scratch/scratchdirs/pmiro/g09/13455143.hopque01/Gau-8777.d2e 0 /scratch/scratchdirs/pmiro/g09/13455143.hopque01/Gau-8777.scr 0 /scratch/scratchdirs/pmiro/g09/13455143.hopque01/Gau-8776.inp 0 junk.out 0 /scratch/scratchdirs/pmiro/g09/13455143.hopque01/Gau-8777.nex 0

numenv is 0

 (Enter /usr/common/usg/g09/c1/g09/linda-exe/l1002.exel)
 Minotr:  Closed shell wavefunction.
          IDoAtm=111
          Direct CPHF calculation.
          Differentiating once with respect to electric field.
                with respect to dipole field.
          Differentiating once with respect to nuclear coordinates.
          Using symmetry in CPHF.
          Requested convergence is 1.0D-08 RMS, and 1.0D-07 maximum.
          Secondary convergence is 1.0D-12 RMS, and 1.0D-12 maximum.
          NewPWx=T KeepS1=F KeepF1=F KeepIn=T MapXYZ=F SortEE=F KeepMc=T.
          MDV=    3221225438 using IRadAn=       1.
 Generate precomputed XC quadrature information.
          Keep J ints in memory in canonical form, NReq=874436.
 Symmetry not used in FoFDir.
 MinBra= 0 MaxBra= 2 Meth= 1.
 IRaf=       0 NMat=   1 IRICut=       1 DoRegI=T DoRafI=F ISym2E= 0 JSym2E=0.
          Solving linear equations simultaneously, MaxMat=       0.
          There are     9 degrees of freedom in the 1st order CPHF.  IDoFFX=4.
      9 vectors produced by pass  0 Test12= 1.06D-15 1.11D-08 XBig12= 3.63D+00 1.34D+00.
 AX will form     9 AO Fock derivatives at one time.
      9 vectors produced by pass  1 Test12= 1.06D-15 1.11D-08 XBig12= 4.88D-01 3.49D-01.
      9 vectors produced by pass  2 Test12= 1.06D-15 1.11D-08 XBig12= 2.01D-03 1.71D-02.
      9 vectors produced by pass  3 Test12= 1.06D-15 1.11D-08 XBig12= 1.81D-06 5.26D-04.
      6 vectors produced by pass  4 Test12= 1.06D-15 1.11D-08 XBig12= 2.16D-09 2.54D-05.
      3 vectors produced by pass  5 Test12= 1.06D-15 1.11D-08 XBig12= 4.37D-13 3.48D-07.
 Inverted reduced A of dimension    45 with in-core refinement.
 FullF1:  Do perturbations    1 to     9.
 Isotropic polarizability for W=    0.000000        5.12 Bohr**3.
 End of Minotr Frequency-dependent properties file   721 does not exist.
 End of Minotr Frequency-dependent properties file   722 does not exist.
 Leave Link 1002 at Mon Oct 19 08:02:11 2015, MaxMem= 3221225472 cpu:      11.3
lexec executing /usr/common/usg/g09/c1/g09/l601.exe 3221225472 checkpoint.chk 1 /scratch/scratchdirs/pmiro/g09/13455143.hopque01/Gau-8777.int 0 /scratch/scratchdirs/pmiro/g09/13455143.hopque01/Gau-8777.rwf 0 /scratch/scratchdirs/pmiro/g09/13455143.hopque01/Gau-8777.d2e 0 /scratch/scratchdirs/pmiro/g09/13455143.hopque01/Gau-8777.scr 0 /scratch/scratchdirs/pmiro/g09/13455143.hopque01/Gau-8776.inp 0 junk.out 0 /scratch/scratchdirs/pmiro/g09/13455143.hopque01/Gau-8777.nex 0

numenv is 0

 (Enter /usr/common/usg/g09/c1/g09/l601.exe)
 Copying SCF densities to generalized density rwf, IOpCl= 0 IROHF=0.

 **********************************************************************

            Population analysis using the SCF density.

 **********************************************************************

 Orbital symmetries:
       Occupied  (A1) (A1) (B2) (A1) (B1)
       Virtual   (A1) (B2) (B2) (A1) (A1) (B1) (B2) (A1) (A2) (A1)
                 (B1) (B2) (B2) (A1) (B1) (A2) (A1) (A1) (B2)
 The electronic state is 1-A1.
 Alpha  occ. eigenvalues --  -18.95765  -0.95527  -0.47527  -0.33312  -0.25129
 Alpha virt. eigenvalues --    0.05324   0.12616   0.54586   0.61134   0.91689
 Alpha virt. eigenvalues --    0.92388   1.00839   1.09274   1.35279   1.39539
 Alpha virt. eigenvalues --    1.55071   1.81745   2.22443   2.27331   2.98663
 Alpha virt. eigenvalues --    3.01446   3.21397   3.53521   3.89122
          Condensed to atoms (all electrons):
              1          2          3
     1  H    0.532548  -0.024418   0.326551
     2  H   -0.024418   0.532548   0.326551
     3  O    0.326551   0.326551   7.677539
 Mulliken atomic charges:
              1
     1  H    0.165320
     2  H    0.165320
     3  O   -0.330640
 Sum of Mulliken atomic charges =   0.00000
 Mulliken charges with hydrogens summed into heavy atoms:
              1
     3  O    0.000000
 Sum of Mulliken charges with hydrogens summed into heavy atoms =   0.00000
 APT atomic charges:
              1
     1  H    0.255775
     2  H    0.255775
     3  O   -0.511550
 Sum of APT charges=   0.00000
 APT Atomic charges with hydrogens summed into heavy atoms:
              1
     1  H    0.000000
     2  H    0.000000
     3  O    0.000000
 Sum of APT charges=   0.00000
 Electronic spatial extent (au):  <R**2>=             18.8785
 Charge=              0.0000 electrons
 Dipole moment (field-independent basis, Debye):
    X=              0.0000    Y=              0.0000    Z=             -2.0148  Tot=              2.0148
 Quadrupole moment (field-independent basis, Debye-Ang):
   XX=             -7.0028   YY=             -4.2924   ZZ=             -5.8933
   XY=              0.0000   XZ=              0.0000   YZ=              0.0000
 Traceless Quadrupole moment (field-independent basis, Debye-Ang):
   XX=             -1.2733   YY=              1.4371   ZZ=             -0.1638
   XY=              0.0000   XZ=              0.0000   YZ=              0.0000
 Octapole moment (field-independent basis, Debye-Ang**2):
  XXX=              0.0000  YYY=              0.0000  ZZZ=             -1.1495  XYY=              0.0000
  XXY=              0.0000  XXZ=             -0.3025  XZZ=              0.0000  YZZ=              0.0000
  YYZ=             -1.1597  XYZ=              0.0000
 Hexadecapole moment (field-independent basis, Debye-Ang**3):
 XXXX=             -4.8201 YYYY=             -5.8045 ZZZZ=             -6.0170 XXXY=              0.0000
 XXXZ=              0.0000 YYYX=              0.0000 YYYZ=              0.0000 ZZZX=              0.0000
 ZZZY=              0.0000 XXYY=             -2.0241 XXZZ=             -1.8620 YYZZ=             -1.6290
 XXYZ=              0.0000 YYXZ=              0.0000 ZZXY=              0.0000
 N-N= 9.149548772007D+00 E-N=-1.988649186692D+02  KE= 7.586390142063D+01
 Symmetry A1   KE= 6.775638364116D+01
 Symmetry A2   KE= 7.610246670084D-36
 Symmetry B1   KE= 4.573286259996D+00
 Symmetry B2   KE= 3.534231519469D+00
  Exact polarizability:   3.097   0.000   6.939   0.000   0.000   5.337
 Approx polarizability:   3.497   0.000   9.378   0.000   0.000   7.307
 No NMR shielding tensors so no spin-rotation constants.
 Leave Link  601 at Mon Oct 19 08:02:11 2015, MaxMem= 3221225472 cpu:       4.8
 (Enter /usr/common/usg/g09/c1/g09/linda-exe/l701.exel)
 Compute integral second derivatives.
 ... and contract with generalized density number  0.
 Leave Link  701 at Mon Oct 19 08:02:12 2015, MaxMem= 3221225472 cpu:       6.4
lexec executing /usr/common/usg/g09/c1/g09/l702.exe 3221225472 checkpoint.chk 1 /scratch/scratchdirs/pmiro/g09/13455143.hopque01/Gau-8777.int 0 /scratch/scratchdirs/pmiro/g09/13455143.hopque01/Gau-8777.rwf 0 /scratch/scratchdirs/pmiro/g09/13455143.hopque01/Gau-8777.d2e 0 /scratch/scratchdirs/pmiro/g09/13455143.hopque01/Gau-8777.scr 0 /scratch/scratchdirs/pmiro/g09/13455143.hopque01/Gau-8776.inp 0 junk.out 0 /scratch/scratchdirs/pmiro/g09/13455143.hopque01/Gau-8777.nex 0

numenv is 0

 (Enter /usr/common/usg/g09/c1/g09/l702.exe)
 L702 exits ... SP integral derivatives will be done elsewhere.
 Leave Link  702 at Mon Oct 19 08:02:12 2015, MaxMem= 3221225472 cpu:       1.1
 (Enter /usr/common/usg/g09/c1/g09/linda-exe/l703.exel)
 Compute integral second derivatives, UseDBF=F ICtDFT=           0.
 Integral derivatives from FoFDir, PRISM(SPDF).
 Calling FoFJK, ICntrl=    100527 FMM=F ISym2X=1 I1Cent= 0 IOpClX= 0 NMat=1 NMatS=1 NMatT=0.
 FoFCou: FMM=F IPFlag=           0 FMFlag=      100000 FMFlg1=         800
         NFxFlg=           0 DoJE=F BraDBF=F KetDBF=F FulRan=T
         Omega=  0.000000  0.000000  1.000000  0.000000  0.000000 ICntrl=  100527 IOpCl=  0
         NMat0=    1 NMatS0=    1 NMatT0=    0 NMatD0=    1 NMtDS0=    0 NMtDT0=    0
         I1Cent=           0 NGrid=           0.
 Petite list used in FoFCou.
 Leave Link  703 at Mon Oct 19 08:02:13 2015, MaxMem= 3221225472 cpu:      11.1
lexec executing /usr/common/usg/g09/c1/g09/l716.exe 3221225472 checkpoint.chk 1 /scratch/scratchdirs/pmiro/g09/13455143.hopque01/Gau-8777.int 0 /scratch/scratchdirs/pmiro/g09/13455143.hopque01/Gau-8777.rwf 0 /scratch/scratchdirs/pmiro/g09/13455143.hopque01/Gau-8777.d2e 0 /scratch/scratchdirs/pmiro/g09/13455143.hopque01/Gau-8777.scr 0 /scratch/scratchdirs/pmiro/g09/13455143.hopque01/Gau-8776.inp 0 junk.out 0 /scratch/scratchdirs/pmiro/g09/13455143.hopque01/Gau-8777.nex 0

numenv is 0

 (Enter /usr/common/usg/g09/c1/g09/l716.exe)
 Dipole        =-2.92536341D-17-1.24900090D-16-7.92686111D-01
 Polarizability= 3.09678721D+00-8.21327421D-13 6.93905652D+00
                 1.10898237D-12 3.38342910D-09 5.33691217D+00
 Full mass-weighted force constant matrix:
 Low frequencies ---  -87.7145  -50.4597  -33.5923   -0.0026   -0.0025   -0.0018
 Low frequencies --- 1683.1703 3857.6744 3970.2603
 Harmonic frequencies (cm**-1), IR intensities (KM/Mole), Raman scattering
 activities (A**4/AMU), depolarization ratios for plane and unpolarized
 incident light, reduced masses (AMU), force constants (mDyne/A),
 and normal coordinates:
                     1                      2                      3
                    A1                     A1                     B2
 Frequencies --  1683.1703              3857.6744              3970.2602
 Red. masses --     1.0805                 1.0472                 1.0801
 Frc consts  --     1.8036                 9.1818                10.0308
 IR Inten    --    59.3897                10.7716                47.0319
  Atom  AN      X      Y      Z        X      Y      Z        X      Y      Z
     1   1     0.00   0.44   0.55     0.00  -0.58   0.41     0.00   0.55  -0.44
     2   1     0.00  -0.44   0.55     0.00   0.58   0.41     0.00   0.55   0.44
     3   8     0.00   0.00  -0.07     0.00   0.00  -0.05     0.00  -0.07   0.00

 -------------------
 - Thermochemistry -
 -------------------
 Temperature   298.150 Kelvin.  Pressure   1.00000 Atm.
 Atom     1 has atomic number  1 and mass   1.00783
 Atom     2 has atomic number  1 and mass   1.00783
 Atom     3 has atomic number  8 and mass  15.99491
 Molecular mass:    18.01056 amu.
 Principal axes and moments of inertia in atomic units:
                           1         2         3
     Eigenvalues --     2.30933   4.06669   6.37602
           X            0.00000   0.00000   1.00000
           Y            1.00000   0.00000   0.00000
           Z            0.00000   1.00000   0.00000
 This molecule is an asymmetric top.
 Rotational symmetry number  2.
 Rotational temperatures (Kelvin)     37.50606    21.29835    13.58431
 Rotational constants (GHZ):         781.50048   443.78610   283.05138
 Zero-point vibrational energy      56889.0 (Joules/Mol)
                                   13.59681 (Kcal/Mol)
 Vibrational temperatures:   2421.70  5550.33  5712.31
          (Kelvin)
 
 Zero-point correction=                           0.021668 (Hartree/Particle)
 Thermal correction to Energy=                    0.024503
 Thermal correction to Enthalpy=                  0.025447
 Thermal correction to Gibbs Free Energy=         0.004016
 Sum of electronic and zero-point Energies=            -76.328354
 Sum of electronic and thermal Energies=               -76.325519
 Sum of electronic and thermal Enthalpies=             -76.324575
 Sum of electronic and thermal Free Energies=          -76.346006
 
                     E (Thermal)             CV                S
                      KCal/Mol        Cal/Mol-Kelvin    Cal/Mol-Kelvin
 Total                   15.376              6.001             45.105
 Electronic               0.000              0.000              0.000
 Translational            0.889              2.981             34.608
 Rotational               0.889              2.981             10.492
 Vibrational             13.598              0.039              0.005
                       Q            Log10(Q)             Ln(Q)
 Total Bot       0.142172D-01         -1.847187         -4.253305
 Total V=0       0.131622D+09          8.119330         18.695448
 Vib (Bot)       0.108047D-09         -9.966388        -22.948456
 Vib (V=0)       0.100030D+01          0.000129          0.000297
 Electronic      0.100000D+01          0.000000          0.000000
 Translational   0.300432D+07          6.477746         14.915562
 Rotational      0.437980D+02          1.641455          3.779589
 
                                                         Oniom Calculation 1
                                                             IR Spectrum
 
     3   3                                                                     1                                                     
     9   8                                                                     6                                                     
     7   5                                                                     8                                                     
     0   8                                                                     3                                                     
 
     X   X                                                                     X                                                     
     X   X                                                                     X                                                     
     X   X                                                                     X                                                     
     X   X                                                                     X                                                     
     X                                                                         X                                                     
     X                                                                         X                                                     
     X                                                                         X                                                     
     X                                                                         X                                                     
     X                                                                         X                                                     
     X                                                                         X                                                     
     X                                                                         X                                                     
     X                                                                         X                                                     
     X                                                                         X                                                     
     X                                                                         X                                                     
     X                                                                         X                                                     
     X                                                                         X                                                     
                                                                               X                                                     
                                                                               X                                                     
                                                                               X                                                     
                                                                               X                                                     
 
 ***** Axes restored to original set *****
 -------------------------------------------------------------------
 Center     Atomic                   Forces (Hartrees/Bohr)
 Number     Number              X              Y              Z
 -------------------------------------------------------------------
      1        1           0.000000000   -0.000078936   -0.000061840
      2        1           0.000000000    0.000078936   -0.000061840
      3        8           0.000000000    0.000000000    0.000123680
 -------------------------------------------------------------------
 Cartesian Forces:  Max     0.000123680 RMS     0.000062722
 Force constants in Cartesian coordinates: 
                1             2             3             4             5 
      1 -0.151819D-03
      2  0.000000D+00  0.371615D+00
      3  0.000000D+00 -0.240029D+00  0.230037D+00
      4 -0.108781D-03  0.000000D+00  0.000000D+00 -0.151819D-03
      5  0.000000D+00 -0.312225D-01 -0.323538D-01  0.000000D+00  0.371615D+00
      6  0.000000D+00  0.323538D-01  0.122284D-01  0.000000D+00  0.240029D+00
      7  0.260600D-03  0.000000D+00  0.000000D+00  0.260600D-03  0.000000D+00
      8  0.000000D+00 -0.340392D+00  0.272383D+00  0.000000D+00 -0.340392D+00
      9  0.000000D+00  0.207675D+00 -0.242265D+00  0.000000D+00 -0.207675D+00
                6             7             8             9 
      6  0.230037D+00
      7  0.000000D+00 -0.521199D-03
      8 -0.272383D+00  0.000000D+00  0.680785D+00
      9 -0.242265D+00  0.000000D+00  0.000000D+00  0.484531D+00
 Force constants in internal coordinates: 
                1             2             3 
      1  0.550509D+00
      2 -0.770945D-02  0.550509D+00
      3  0.297336D-01  0.297336D-01  0.169171D+00
 Leave Link  716 at Mon Oct 19 08:02:14 2015, MaxMem= 3221225472 cpu:       2.7
 (Enter /usr/common/usg/g09/c1/g09/l103.exe)

 GradGradGradGradGradGradGradGradGradGradGradGradGradGradGradGradGradGrad
 Berny optimization.
 Red2BG is reusing G-inverse.
 Internal  Forces:  Max     0.000177495 RMS     0.000104187
 Search for a local minimum.
 Step number   1 out of a maximum of    2
 All quantities printed in internal units (Hartrees-Bohrs-Radians)
 Second derivative matrix not updated -- analytic derivatives used.
 The second derivative matrix:
                          R1        R2        A1
           R1           0.55051
           R2          -0.00771   0.55051
           A1           0.02973   0.02973   0.16917
 ITU=  0
     Eigenvalues ---    0.16450   0.54747   0.55822
 Angle between quadratic step and forces=  11.58 degrees.
 Linear search not attempted -- first point.
 Iteration  1 RMS(Cart)=  0.00059794 RMS(Int)=  0.00000021
 Iteration  2 RMS(Cart)=  0.00000018 RMS(Int)=  0.00000000
 ClnCor:  largest displacement from symmetrization is 9.71D-15 for atom     2.
 Variable       Old X    -DE/DX   Delta X   Delta X   Delta X     New X
                                 (Linear)    (Quad)   (Total)
    R1        1.81869  -0.00002   0.00000   0.00002   0.00002   1.81871
    R2        1.81869  -0.00002   0.00000   0.00002   0.00002   1.81871
    A1        1.79255  -0.00018   0.00000  -0.00105  -0.00105   1.79149
         Item               Value     Threshold  Converged?
 Maximum Force            0.000177     0.000450     YES
 RMS     Force            0.000104     0.000300     YES
 Maximum Displacement     0.000587     0.001800     YES
 RMS     Displacement     0.000598     0.001200     YES
 Predicted change in Energy=-9.323958D-08
 Optimization completed.
    -- Stationary point found.
                           ----------------------------
                           !   Optimized Parameters   !
                           ! (Angstroms and Degrees)  !
 --------------------------                            --------------------------
 ! Name  Definition              Value          Derivative Info.                !
 --------------------------------------------------------------------------------
 ! R1    R(1,3)                  0.9624         -DE/DX =    0.0                 !
 ! R2    R(2,3)                  0.9624         -DE/DX =    0.0                 !
 ! A1    A(1,3,2)              102.7055         -DE/DX =   -0.0002              !
 --------------------------------------------------------------------------------
 GradGradGradGradGradGradGradGradGradGradGradGradGradGradGradGradGradGrad

 Leave Link  103 at Mon Oct 19 08:02:14 2015, MaxMem= 3221225472 cpu:       0.2
 (Enter /usr/common/usg/g09/c1/g09/l9999.exe)
 1\1\GINC-NID00129\Freq\RM06L\Gen\H2O1\PMIRO\19-Oct-2015\0\\#P Geom=All
 Check Guess=TCheck SCRF=Check GenChk RM06L/ChkBas Freq\\Oniom Calculat
 ion 1\\0,1\H,0.,0.7516474338,-0.4796423095\H,0.,-0.7516474338,-0.47964
 23095\O,0.,0.,0.121405619\\Version=AM64L-G09RevC.01\State=1-A1\HF=-76.
 3500218\RMSD=2.422e-10\RMSF=6.272e-05\ZeroPoint=0.0216679\Thermal=0.02
 45027\Dipole=0.,0.,-0.7926861\DipoleDeriv=0.3491288,0.,0.,0.,0.2438471
 ,0.0451433,0.,0.0842967,0.174349,0.3491288,0.,0.,0.,0.2438471,-0.04514
 33,0.,-0.0842967,0.174349,-0.6982577,0.,0.,0.,-0.4876943,0.,0.,0.,-0.3
 48698\Polar=3.0967872,0.,6.9390565,0.,0.,5.3369122\PG=C02V [C2(O1),SGV
 (H2)]\NImag=0\\-0.00015182,0.,0.37161500,0.,-0.24002881,0.23003704,-0.
 00010878,0.,0.,-0.00015182,0.,-0.03122250,-0.03235377,0.,0.37161500,0.
 ,0.03235377,0.01222842,0.,0.24002881,0.23003704,0.00026060,0.,0.,0.000
 26060,0.,0.,-0.00052120,0.,-0.34039250,0.27238258,0.,-0.34039250,-0.27
 238258,0.,0.68078500,0.,0.20767504,-0.24226545,0.,-0.20767504,-0.24226
 545,0.,0.,0.48453091\\0.,0.00007894,0.00006184,0.,-0.00007894,0.000061
 84,0.,0.,-0.00012368\\\@


 We find comfort among those who agree with us -- growth among those who don't.
 -- Frank A. Clark
 Job cpu time:  0 days  0 hours  0 minutes 37.4 seconds.
 File lengths (MBytes):  RWF=      5 Int=      0 D2E=      0 Chk=      1 Scr=      1
 Normal termination of Gaussian 09 at Mon Oct 19 08:02:14 2015.
Application 60069481 resources: utime ~173s, stime ~6s, Rss ~713492, inblocks ~899135, outblocks ~113832
